 Gaussian 09, Revision C.01,
 Gaussian 09:  EM64L-G09RevC.01 23-Sep-2011

 ----------------------------------------
 #n CIS(D)/6-31G(d) SP Geom=AllCheckpoint
 ----------------------------------------

 Structure from the checkpoint file:  azo.chk
 ---
 Azo
 ---
 Charge =  0 Multiplicity = 1

                         Standard orientation:
 ---------------------------------------------------------------------
 Center     Atomic      Atomic             Coordinates (Angstroms)
 Number     Number       Type             X           Y           Z
 ---------------------------------------------------------------------
      1          6           0       -2.511061    3.317823    0.000000
      2          6           0       -1.300469    2.626947    0.000000
      3          6           0       -1.287480    1.225741    0.000000
      4          1           0       -0.348550    3.149320    0.000000
      5          6           0       -3.714361    2.610307    0.000000
      6          1           0       -2.515854    4.404298    0.000000
      7          6           0       -2.500055    0.514407    0.000000
      8          6           0       -3.703649    1.209351    0.000000
      9          1           0       -4.660279    3.145268    0.000000
     10          1           0       -2.470595   -0.569410    0.000000
     11          1           0       -4.642390    0.661431    0.000000
     12          7           0        0.000159    0.630557    0.000000
     13          7           0        0.000000   -0.630189    0.000000
     14          6           0        1.287569   -1.225576    0.000000
     15          6           0        2.500275   -0.514461    0.000000
     16          6           0        3.703747   -1.209618    0.000000
     17          1           0        2.471009    0.569357    0.000000
     18          6           0        1.300328   -2.626787    0.000000
     19          6           0        2.510801   -3.317879    0.000000
     20          1           0        0.348322   -3.149001    0.000000
     21          6           0        3.714220   -2.610576    0.000000
     22          1           0        4.642584   -0.661863    0.000000
     23          1           0        4.660047   -3.145700    0.000000
     24          1           0        2.515401   -4.404355    0.000000
 ---------------------------------------------------------------------

 SCF Done:  E(RHF) =  -569.095425718     A.U. after   15 cycles
 E2 =    -0.1836395728D+01 EUMP2 =    -0.57093182144532D+03

 Excitation energies and oscillator strengths:

 Excited State   1:      Singlet-A"     3.3935 eV  365.35 nm  f=0.0000  <S**2>=0.000
      44 -> 49         0.62470
      44 -> 53        -0.29508
 This state for optimization and/or second-order correction.
 Total Energy, E(CIS) =  -568.970715266
 Copying the excited state density for this state as the 1-particle RhoCI density.

 Excited State   2:      Singlet-A'     4.7045 eV  263.55 nm  f=0.9607  <S**2>=0.000
      45 -> 52         0.14088
      48 -> 49         0.66168

 Excited State   3:      Singlet-A'     5.7718 eV  214.81 nm  f=0.0272  <S**2>=0.000
      45 -> 51         0.22291
      46 -> 52         0.24291
      47 -> 49         0.52104
      48 -> 50        -0.32357

 The electronic state is 1-A'.
 Alpha  occ. eigenvalues --  -15.62895 -15.62772 -11.26590 -11.26589 -11.24350
 Alpha  occ. eigenvalues --  -11.24350 -11.24152 -11.24152 -11.24047 -11.24047
 Alpha  occ. eigenvalues --  -11.23961 -11.23960 -11.23908 -11.23908  -1.36166
 Alpha  occ. eigenvalues --   -1.16692  -1.14456  -1.07039  -1.01818  -1.01768
 Alpha  occ. eigenvalues --   -1.00305  -0.92020  -0.83862  -0.83431  -0.81389
 Alpha  occ. eigenvalues --   -0.77052  -0.71369  -0.69392  -0.66470  -0.65596
 Alpha  occ. eigenvalues --   -0.62581  -0.61343  -0.59369  -0.59332  -0.58876
 Alpha  occ. eigenvalues --   -0.57372  -0.57100  -0.51664  -0.51500  -0.50849
 Alpha  occ. eigenvalues --   -0.49366  -0.49342  -0.47171  -0.38980  -0.35651
 Alpha  occ. eigenvalues --   -0.33764  -0.33725  -0.29717
 Alpha virt. eigenvalues --    0.05580   0.14047   0.14207   0.15706   0.22223
 Alpha virt. eigenvalues --    0.23841   0.23850   0.28295   0.29439   0.30122
 Alpha virt. eigenvalues --    0.31389   0.32388   0.32432   0.33686   0.35212

 Mulliken atomic charges:
              1
     1  C   -0.208088
     2  C   -0.195536
     3  C    0.232697
     4  H    0.221198
     5  C   -0.191985
     6  H    0.207193
     7  C   -0.185031
     8  C   -0.209405
     9  H    0.206815
    10  H    0.240329
    11  H    0.207212
    12  N   -0.325384
    13  N   -0.325433
    14  C    0.232717
    15  C   -0.185041
    16  C   -0.209406
    17  H    0.240325
    18  C   -0.195530
    19  C   -0.208088
    20  H    0.221198
    21  C   -0.191983
    22  H    0.207214
    23  H    0.206818
    24  H    0.207195
 Sum of Mulliken atomic charges =   0.00000

 Dipole moment (field-independent basis, Debye):
    X=              0.0001    Y=             -0.0004    Z=              0.0000  Tot=              0.0004
 Quadrupole moment (field-independent basis, Debye-Ang):
   XX=            -66.5128   YY=            -68.8018   ZZ=            -87.7171
   XY=             -4.4602   XZ=              0.0000   YZ=              0.0000

 Normal termination of Gaussian 09 at Thu Oct 17 02:55:12 2019.
