 Gaussian 09, Revision C.01,
 Gaussian 09:  EM64L-G09RevC.01 23-Sep-2011

 ---------------------
 #n B3LYP/6-31G(d) Opt
 ---------------------

 99/9=1/99;
 ---
 Azo
 ---
 Charge =  0 Multiplicity = 1

 SCF Done:  E(RB3LYP) =  -572.760012910     A.U. after   15 cycles
 SCF Done:  E(RB3LYP) =  -572.761665758     A.U. after   12 cycles
 SCF Done:  E(RB3LYP) =  -572.761972161     A.U. after   12 cycles
 SCF Done:  E(RB3LYP) =  -572.762018884     A.U. after   10 cycles
 SCF Done:  E(RB3LYP) =  -572.762019647     A.U. after    8 cycles
 Optimization completed.
    -- Stationary point found.

                         Standard orientation:
 ---------------------------------------------------------------------
 Center     Atomic      Atomic             Coordinates (Angstroms)
 Number     Number       Type             X           Y           Z
 ---------------------------------------------------------------------
      1          6           0       -2.511061    3.317823    0.000000
      2          6           0       -1.300469    2.626947    0.000000
      3          6           0       -1.287480    1.225741    0.000000
      4          1           0       -0.348550    3.149320    0.000000
      5          6           0       -3.714361    2.610307    0.000000
      6          1           0       -2.515854    4.404298    0.000000
      7          6           0       -2.500055    0.514407    0.000000
      8          6           0       -3.703649    1.209351    0.000000
      9          1           0       -4.660279    3.145268    0.000000
     10          1           0       -2.470595   -0.569410    0.000000
     11          1           0       -4.642390    0.661431    0.000000
     12          7           0        0.000159    0.630557    0.000000
     13          7           0        0.000000   -0.630189    0.000000
     14          6           0        1.287569   -1.225576    0.000000
     15          6           0        2.500275   -0.514461    0.000000
     16          6           0        3.703747   -1.209618    0.000000
     17          1           0        2.471009    0.569357    0.000000
     18          6           0        1.300328   -2.626787    0.000000
     19          6           0        2.510801   -3.317879    0.000000
     20          1           0        0.348322   -3.149001    0.000000
     21          6           0        3.714220   -2.610576    0.000000
     22          1           0        4.642584   -0.661863    0.000000
     23          1           0        4.660047   -3.145700    0.000000
     24          1           0        2.515401   -4.404355    0.000000
 ---------------------------------------------------------------------

 The electronic state is 1-A'.
 Alpha  occ. eigenvalues --  -14.37406 -14.37361 -10.21688 -10.21688 -10.19764
 Alpha  occ. eigenvalues --  -10.19764 -10.19530 -10.19529 -10.19511 -10.19510
 Alpha  occ. eigenvalues --  -10.19423 -10.19423 -10.19195 -10.19194  -1.02593
 Alpha  occ. eigenvalues --   -0.86854  -0.85113  -0.79338  -0.75023  -0.74950
 Alpha  occ. eigenvalues --   -0.73874  -0.67601  -0.61689  -0.61189  -0.59641
 Alpha  occ. eigenvalues --   -0.56376  -0.52796  -0.50437  -0.48184  -0.46798
 Alpha  occ. eigenvalues --   -0.45079  -0.44233  -0.42660  -0.42622  -0.42496
 Alpha  occ. eigenvalues --   -0.42417  -0.39344  -0.37380  -0.36332  -0.35990
 Alpha  occ. eigenvalues --   -0.34725  -0.34462  -0.34334  -0.27292  -0.25504
 Alpha  occ. eigenvalues --   -0.25484  -0.22647  -0.22483
 Alpha virt. eigenvalues --   -0.07974  -0.00367  -0.00268   0.01003   0.04719
 Alpha virt. eigenvalues --    0.09437   0.09610   0.13725   0.14706   0.15562
 Alpha virt. eigenvalues --    0.16274   0.16339   0.17453   0.17756   0.17926

 Mulliken atomic charges:
              1
     1  C   -0.138725
     2  C   -0.139857
     3  C    0.268443
     4  H    0.141549
     5  C   -0.117573
     6  H    0.135478
     7  C   -0.122863
     8  C   -0.146063
     9  H    0.134592
    10  H    0.155469
    11  H    0.136082
    12  N   -0.306525
    13  N   -0.306543
    14  C    0.268448
    15  C   -0.122879
    16  C   -0.146059
    17  H    0.155469
    18  C   -0.139852
    19  C   -0.138723
    20  H    0.141548
    21  C   -0.117573
    22  H    0.136083
    23  H    0.134595
    24  H    0.135480
 Sum of Mulliken atomic charges =   0.00000

 Dipole moment (field-independent basis, Debye):
    X=              0.0001    Y=             -0.0004    Z=              0.0000  Tot=              0.0004
 Quadrupole moment (field-independent basis, Debye-Ang):
   XX=            -65.8025   YY=            -68.5033   ZZ=            -84.7385
   XY=             -4.9909   XZ=              0.0000   YZ=              0.0000

 Normal termination of Gaussian 09 at Thu Oct 17 02:11:35 2019.
